50328
Atoms. Timestep: 10000000
1 -126.674 -159.489 -100.492
2 -109.7 160.883 -91.0455
3 -110.141 158.581 -88.6086
4 -111.824 154.725 -89.9418
5 -113.661 152.606 -83.9957
6 -117.504 148.063 -84.2108
7 -117.939 146.753 -79.0739
8 -115.241 148.274 -75.2976
9 -115.537 153.419 -75.7446
10 -111.286 154.204 -74.498
11 -115.033 157.872 -74.4591
12 -118.809 154.491 -73.1808
13 -121.078 156.849 -77.3879
14 -117.1 155.405 -80.6821
15 -116.116 158.372 -82.4425
16 -120.484 155.398 -84.0785
17 -123.616 159.426 -86.1348
18 -127.353 157.307 -83.2732
19 -130.093 159.428 -86.8353
20 -139.963 -168.197 -78.1305
21 -138.794 165.64 -76.2703
22 -141.012 166.121 -72.1581
23 -138.574 162.095 -72.964
24 -138.218 161.015 -68.6818
25 -133.068 160.469 -69.1095
26 -134.203 161.77 -73.8001
27 -130.514 166.386 -74.1031
28 -134.823 167.984 -79.1832
29 -130.882 169.138 -82.9091
30 -130.793 162.506 -82.9205
31 -133.284 161.169 -79.9413
32 -136.681 162.288 -81.3999
33 -141.123 159.976 -81.08
34 -141.838 159.534 -86.1568
35 -146.16 162.321 -86.7722
36 -149.356 160.218 -86.9646
37 -154.024 162.292 -87.2635
38 -152.895 157.064 -86.4805
39 -156.305 153.931 -88.4092
40 -156.799 151.653 -84.2846
41 -155.718 152.978 -78.8345
42 -158.642 156.844 -78.9945
43 -161.48 156.508 -74.6476
2 -111.152 138.784 -134.782
3 -112.056 139.401 -131.472
4 -117.318 138.862 -130.899
5 -115.805 138.678 -125.522
6 -120.483 135.21 -123.246
7 -119.743 139.288 -119.478
8 -117.396 142.185 -119.337
9 -116.348 141.564 -115.26
10 -111.508 143.472 -118.665
11 -114.382 146.368 -115.969
12 -110.267 145.642 -113.268
13 -113.909 147.628 -109.848
14 -115.574 150.953 -112.571
15 -114.788 154.04 -114.264
16 -114.453 155.876 -109.925
17 -119.494 158.701 -108.192
18 -118.043 160.443 -103.543
19 -119.694 155.959 -101.506
20 -136.619 153.578 -102.338
21 -133.491 151.862 -99.5275
22 -134.503 147.516 -97.885
23 -130.904 148.029 -94.6195
24 -132.797 150.208 -91.1413
25 -127.736 149.819 -88.2998
26 -126.1 152.417 -92.8054
27 -130.028 154.259 -92.4525
28 -125.636 156.979 -94.9631
29 -129.031 158.78 -97.6277
30 -124.047 154.747 -99.2936
31 -120.172 154.689 -100.47
32 -118.505 151.292 -102.187
33 -114.893 148.543 -101.24
34 -117.541 150.196 -96.7913
35 -121.32 146.601 -95.4406
36 -123.916 144.263 -97.382
37 -126.395 140.872 -95.2943
38 -127.061 139.431 -100.035
39 -132.13 137.755 -101.488
40 -127.976 135.566 -98.9546
41 -129.674 132.597 -102.605
42 -126.096 128.903 -101.362
43 -128.099 126.562 -106.234
2 -112.927 132.561 -107.161
3 -115.218 135.461 -106.1
4 -116.884 134.989 -100.994
5 -116.192 138.316 -97.928
6 -117.352 134.603 -94.0568
7 -116.57 139.247 -90.8732
8 -112.459 140.014 -90.3576
9 -112.287 141.531 -94.6649
10 -106.512 140.832 -94.1383
11 -109.281 144.924 -96.1254
12 -104.701 146.35 -98.9026
13 -104.831 151.08 -96.4112
14 -101.751 152.922 -99.2069
15 -99.5319 155.53 -98.9883
16 -101.967 158.659 -100.953
17 -99.5874 164.336 -103.099
18 -101.717 165.323 -98.6218
19 -105.47 167.494 -101.22
20 -111.812 162.207 -116.208
21 -111.237 161.033 -121.263
22 -108.276 157.11 -120.088
23 -106.15 161.763 -120.017
24 -101.46 161.963 -118.742
25 -100.387 166.806 -115.353
26 -103.214 163.036 -111.706
27 -106.257 167.105 -109.996
28 -109.474 163.145 -108.261
29 -113.957 163.88 -106.233
30 -107.718 163.957 -104.004
31 -106.576 160.263 -102.479
32 -108.956 159.167 -105.482
33 -107.905 154.863 -104.607
34 -105.527 154.997 -109.22
35 -101.256 153.729 -107.289
36 -98.6172 156.796 -105.637
37 -93.9382 156.385 -106.003
38 -95.5323 155.979 -101.423
39 -92.4246 153.337 -98.8206
40 -95.4654 152.936 -95.057
41 -93.9666 147.829 -95.0875
42 -92.2053 149.372 -90.7053
43 -86.847 149.112 -87.843
2 -95.1987 -139.821 -93.2056
3 -94.5073 -140.587 -89.8544
4 -91.6196 -138.296 -88.8395
5 -91.1332 -142.424 -86.3678
6 -85.8202 -137.503 -83.1237
7 -82.1065 -142.135 -84.1254
8 -84.8944 -145.94 -85.9162
9 -89.5481 -147.418 -87.9266
10 -91.0738 -150.714 -84.0193
11 -90.6139 -151.818 -89.1021
12 -88.9872 -156.08 -87.6795
13 -92.0704 -156.138 -92.3946
14 -95.6882 -156.632 -89.5785
15 -97.2972 -159.578 -88.3377
16 -100.8 -158.338 -91.0817
17 -102.549 -154.117 -88.6014
18 -107.006 -156.876 -89.8459
19 -107.082 -160.465 -86.3718
20 -99.7662 -154.162 -100.504
21 -95.0168 -154.937 -101.04
22 -95.5595 -154.027 -105.092
23 -92.7421 -158.171 -103.041
24 -94.0155 -162.939 -102.592
25 -92.4194 -164.191 -97.4148
26 -95.4561 -160.047 -96.8807
27 -97.5821 -164.221 -97.5678
28 -100.13 -160.785 -95.8366
29 -106.438 -161.146 -96.8312
30 -104.348 -161.134 -90.5399
31 -104.871 -159.973 -86.6977
32 -102.345 -161.426 -84.4639
33 -103.004 -165.896 -81.8136
34 -98.5968 -167.188 -85.2105
35 -94.3913 -164.11 -84.0193
36 -90.9199 -166.135 -85.1525
37 -89.3755 168.678 -81.8534
38 -85.1033 -169.187 -84.4294
39 -81.7329 166.707 -82.4498
40 -79.7443 -168.434 -84.4561
41 -76.9717 168.888 -88.242
42 -73.4729 -165.828 -88.9235
43 -76.5301 -162.636 -91.6304
2 -87.031 168.962 -59.9145
3 -90.7029 168.254 -58.9352
4 -93.9175 167.02 -62.3246
5 -97.3623 -168.549 -63.232
6 -98.5031 -161.298 -61.4883
7 -102.294 -161.005 -64.9021
8 -102.653 -164.973 -66.7292
9 -102.679 168.848 -66.4703
10 -101.681 -168.18 -70.3715
11 -106.954 -168.919 -70.1756
12 -105.841 165.298 -73.4239
13 -109.2 167.523 -75.5384
14 -110.224 164.637 -77.24
15 -109.404 165.775 -80.508
16 -112.956 168.904 -79.3098
17 -118.466 168.523 -82.7762
18 -118.485 -165.255 -81.7654
19 -122.292 -165.454 -77.48
20 -117.215 -149.116 -76.927
21 -120.211 -151.271 -74.7331
22 -122.257 -148.731 -70.9347
23 -125.537 -152.411 -70.8379
24 -124.39 -154.098 -66.7281
25 -127.154 -158.005 -69.9111
26 -124.152 -155.563 -74.405
27 -124.918 -157.322 -79.9544
28 -119.62 -157.371 -77.5672
29 -116.911 -157.887 -82.3887
30 -118.612 -162.026 -77.4952
31 -120.745 -163.321 -74.5017
32 -118.869 -160.462 -72.4067
33 -114.455 -161.893 -73.4148
34 -113.592 -157.231 -70.5794
35 -115.938 -160.539 -67.3681
36 -114.161 -165.047 -65.7915
37 -114.352 -165.823 -61.2858
38 -111.873 -168.945 -63.6217
39 -111.922 166.426 -59.7691
40 -107.394 163.457 -61.5768
41 -110.645 159.87 -58.6441
42 -106.545 158.208 -60.9046
43 -108.538 156.799 -64.1798
44 -16.5976 -45.5662 119.018
45 -16.1644 -40.1562 124.449
46 -12.69 -37.1432 120.173
47 -19.7958 -38.4643 119.276
48 -18.0532 -39.2908 114.178
49 -21.4698 -42.6587 113.096
50 -21.1048 -44.1397 108.943
51 -22.9789 -47.4694 112.005
52 -20.6928 -49.8286 109.632
53 -24.0683 -54.5727 111.547
54 -18.429 -49.8617 113.426
55 -15.6728 -53.767 108.855
56 -10.6274 -51.0261 109.449
57 -14.3613 -49.5677 104.131
58 -14.2208 -55.7726 104.611
59 -11.2517 -51.5674 100.391
60 -10.5618 -48.2306 102.533
44 -83.7853 168.248 -135.178
45 -88.3313 -167.992 -131.644
46 -81.8858 -164.774 -134.48
47 -82.9834 -160.526 -132.516
48 -77.831 -162.815 -135.57
49 -76.1236 -160.146 -132.677
50 -71.9654 -159.143 -131.11
51 -72.9359 -155.447 -135.944
52 -76.544 -153.731 -136.689
53 -71.634 -152.368 -139.159
54 -71.4493 -147.129 -138.515
55 -66.0488 -150.278 -137.768
56 -65.483 -153.035 -133.798
57 -70.5329 -150.529 -130.613
58 -63.9997 -151.354 -129.384
59 -67.3454 -151.368 -124.736
60 -69.1205 -147.293 -124.011
44 126.48 -94.2684 -81.6117
45 126.936 -87.9484 -85.3676
46 125.81 -88.1726 -79.6615
47 129.573 -94.7165 -84.2608
48 130.078 -89.2939 -87.9198
49 131.935 -93.0819 -90.5439
50 128.308 -95.1538 -89.687
51 124.89 -92.1216 -92.8033
52 121.672 -93.0448 -90.02
53 118.131 -90.9064 -95.2443
54 115.03 -86.2481 -92.2656
55 115.551 -82.8172 -96.9179
56 116.098 -77.949 -95.699
57 113.246 -79.3603 -102.069
58 117.9 -75.6225 -103.567
59 118.896 -80.53 -99.7786
60 122.121 -78.1373 -97.1865
44 -70.7608 -68.8645 66.7243
45 -74.2296 -68.657 72.5582
46 -68.3569 -70.0278 75.4006
47 -72.4308 -76.9031 75.1738
48 -73.7221 -75.4834 80.8583
49 -78.3483 -76.9269 81.4578
50 -80.0607 -80.6664 78.5416
51 -83.8951 -80.2249 82.0685
52 -80.5509 -79.8316 86.0016
53 -78.8195 -83.8157 82.5646
54 -77.2216 -85.6475 88.7844
55 -73.804 -87.895 85.0492
56 -70.5057 -90.9829 87.3056
57 -68.8738 -86.4505 83.1391
58 -69.9444 -81.2767 86.8486
59 -72.4223 -84.5427 90.1883
60 -75.4919 -81.7337 91.6988
44 -143.196 -7.221 -96.3486
45 -141.16 -1.58772 -95.7995
46 -147.623 -3.96629 -98.6063
47 -142.558 -4.79334 -104.371
48 -141.557 -0.563295 -99.7912
49 -143.335 2.61066 -102.262
50 -142.266 6.78548 -102.552
51 -144.731 5.38927 -106.603
52 -146.602 0.791379 -107.795
53 -152.345 2.44025 -110.614
54 -149.994 3.33869 -104.469
55 -155.946 5.56168 -103.871
56 -156.717 4.2557 -109.382
57 -162.707 5.03704 -107.864
58 -163.574 12.275 -107.693
59 -167.324 10.9335 -102.439
60 -164.632 13.612 -100.189
44 52.221 152.319 -40.3942
45 53.8967 146.742 -43.3711
46 60.1523 151.082 -43.8567
47 55.8997 155.14 -40.9885
48 56.8685 155.761 -47.2121
49 57.0162 160.947 -46.6485
50 60.2883 160.648 -47.9991
51 58.5388 163.944 -51.2022
52 60.0034 161.044 -53.2112
53 65.1048 164.054 -49.9187
54 70.5979 162.939 -52.562
55 67.2402 162.908 -55.3033
56 67.5486 158.062 -58.2984
57 70.0551 158.443 -52.6654
58 71.6438 151.965 -53.2283
59 66.7582 150.782 -50.8201
60 63.7771 154.103 -52.8316
44 -113.207 -143.03 22.6246
45 -112.591 -148.699 24.6921
46 -117.01 -145.37 29.256
47 -120.639 -140.993 27.5685
48 -121.88 -142.849 21.7564
49 -123.864 -139.834 19.8488
50 -121.751 -135.795 20.2252
51 -121.008 -135.682 14.3639
52 -116.849 -135.752 16.0079
53 -114.954 -129.468 13.6843
54 -114.806 -131.166 19.4406
55 -114.272 -128.963 20.3755
56 -108.938 -126.27 20.9839
57 -107.455 -130.603 16.0849
58 -101.943 -133.252 18.7795
59 -101.715 -127.949 19.7555
60 -103.747 -129.689 23.2293
44 -168.692 14.0189 -95.5034
45 163.017 16.9017 -98.7468
46 164.18 12.1253 -102.151
47 167.975 18.0958 -104.533
48 162.378 18.474 -101.417
49 163.381 22.5272 -103.697
50 166.547 21.7183 -106.835
51 167.14 26.9067 -104.356
52 167.409 26.6441 -100.122
53 -168.15 30.8072 -102.409
54 166.221 30.8384 -101.463
55 165.596 32.8298 -96.6425
56 163.414 37.6014 -95.3441
57 157.704 33.6031 -94.9615
58 159.362 27.3419 -96.2692
59 162.638 29.2429 -92.2532
60 159.74 26.1672 -89.929
44 -110.19 -4.62688 13.4997
45 -107.056 -9.51547 9.70567
46 -112.301 -14.5275 8.5401
47 -110.759 -15.225 2.66123
48 -115.911 -11.428 2.82481
49 -118.901 -13.7944 6.27567
50 -121.229 -14.1919 10.3857
51 -123.123 -15.7614 7.19723
52 -119.523 -18.4331 5.21572
53 -124.369 -18.8649 2.26368
54 -122.287 -20.2986 -2.33333
55 -126.463 -18.8454 -3.66699
56 -131.464 -16.0671 -2.064
57 -132.588 -20.7841 -0.0443463
58 -138.975 -23.748 1.03621
59 -136.519 -23.9632 6.16923
60 -137.928 -27.7304 8.08856
44 166.798 141.192 -48.9397
45 -164.398 140.293 -47.9046
46 -167.86 138.758 -43.0413
47 -167.334 144.417 -46.3685
48 -167.25 146.367 -41.117
49 -164.862 142.878 -40.2501
50 -165.381 141.129 -35.9345
51 -167.586 144.863 -35.3842
52 -168.584 143.874 -31.4667
53 -165.347 147.958 -29.985
54 -161.486 146.913 -33.6502
55 -160.08 148.402 -29.8132
56 -162.018 151.652 -31.8524
57 -156.537 153.907 -27.5051
58 -158.414 148.139 -26.3107
59 -157.813 150.125 -19.4052
60 -154.111 150.68 -17.2266
44 131.278 112.475 -165.228
45 126.59 115.547 -160.271
46 131.596 114.695 -155.296
47 128.477 108.467 -151.554
48 126.428 109.364 -155.942
49 125.478 105.987 -153.99
50 121.898 103.181 -152.865
51 124.999 99.8847 -150.431
52 127.025 98.6157 -153.872
53 122.787 95.2659 -156.485
54 119.122 98.1741 -158.44
55 121.168 99.1534 -160.567
56 122.489 100.422 -165.906
57 125.916 95.3345 -164.805
58 119.792 94.7018 -168.17
59 117.941 101.181 -166.909
60 116.235 100.047 -162.939
44 112.082 65.6624 -92.9122
45 110.023 72.594 -91.5877
46 112.205 72.293 -97.2356
47 116.585 70.4346 -93.1354
48 120.174 71.3162 -98.305
49 122.735 74.8233 -96.0357
50 127.375 75.5467 -97.0615
51 125.157 78.1317 -101.647
52 129.555 76.8477 -102.284
53 128.064 72.7208 -104.056
54 122.842 73.9488 -104.304
55 124.694 76.0731 -107.908
56 130.32 74.5877 -109.571
57 126.689 68.4332 -109.787
58 125.096 71.7361 -113.129
59 130.133 76.0476 -110.915
60 129.621 79.1846 -113.575
44 164.542 138.566 -7.35977
45 161.617 137.59 -0.78048
46 164.286 132.623 -1.33852
47 -168.191 137.766 -0.816774
48 -165.946 134.628 -3.38118
49 -162.001 136.457 -5.13854
50 -162.54 131.974 -7.22002
51 -164.607 135.056 -11.1485
52 -161.107 134.263 -13.1159
53 -161.963 140.728 -13.2615
54 -159.338 141.244 -9.72783
55 -159.16 147.214 -11.3111
56 -158.949 144.34 -15.0242
57 -163.443 149.555 -15.9421
58 -167.516 146.481 -11.9404
59 168.897 141.493 -15.9205
60 -165.504 141.978 -16.2852
44 6.50364 104.409 -64.408
45 12.884 106.9 -64.5971
46 11.5884 101.639 -68.7609
47 11.9508 98.3658 -62.4043
48 16.5511 103.644 -64.1555
49 19.9832 101.03 -63.227
50 19.4885 96.5107 -63.0556
51 16.3599 97.6757 -67.3532
52 16.5373 94.0454 -69.6552
53 13.6098 92.5546 -74.7918
54 12.5008 86.1641 -72.3631
55 17.1247 87.6411 -70.7793
56 20.2749 84.1898 -68.4066
57 22.3919 83.0819 -73.8973
58 27.5251 85.3305 -73.7422
59 26.2251 83.0595 -67.9355
60 29.1088 86.0386 -67.7314
44 -88.5318 121.034 -104.189
45 -87.4497 121.913 -110.321
46 -85.7314 127.704 -109.275
47 -82.1313 128.341 -114.454
48 -85.7918 123.585 -114.602
49 -85.5575 124.323 -118.703
50 -84.1683 120.599 -121.305
51 -83.5138 125.143 -124.653
52 -85.2037 124.826 -128.479
53 -80.3056 127.215 -131.771
54 -84.8817 127.269 -135.365
55 -82.688 122.47 -134.553
56 -85.1461 117.404 -134.239
57 -86.6132 121.199 -139.569
58 -80.6198 122.235 -144.419
59 -80.6682 124.445 -138.005
60 -77.4701 127.392 -137.214
1 -44.0025 -154.671 -12.9474
2 -66.2671 159.415 -24.6046
3 -65.45 160.985 -28.1295
4 -64.4118 157.47 -31.0756
5 -65.5775 161.072 -35.8761
6 -61.1946 165.87 -37.8716
7 -65.1569 167.921 -40.6746
8 -68.4784 168.125 -38.7345
9 -66.878 -168.365 -34.4706
10 -71.7554 -168.227 -33.4585
11 -71.0105 -162.904 -33.8276
12 -72.8907 -162.775 -39.147
13 -67.7007 -162.111 -37.768
14 -70.4202 -160.55 -33.8882
15 -68.3846 -158.214 -31.8314
16 -67.1579 -162.641 -29.5324
17 -62.3179 -159.808 -25.7898
18 -65.2193 -160.764 -22.3158
19 -65.2103 -155.2 -24.5269
20 -70.226 -147.061 -10.3304
21 -71.4148 -144.679 -15.0512
22 -73.0635 -140.29 -14.1661
23 -72.075 -141.808 -18.3267
24 -75.4429 -143.864 -20.6489
25 -71.9427 -143.562 -24.1757
26 -68.0267 -144.566 -19.6369
27 -63.7823 -147.275 -21.0971
28 -67.5326 -148.754 -15.1622
29 -64.6022 -154.898 -14.0475
30 -67.4512 -155.256 -20.0217
31 -68.5983 -153.807 -24.3451
32 -70.1472 -156.483 -26.8686
33 -71.8951 -157.848 -22.4989
34 -76.4874 -159.092 -26.8187
35 -77.4671 -155.505 -29.7866
36 -81.2369 -157.479 -28.2082
37 -85.0423 -155.837 -27.7784
38 -86.8396 -160.134 -24.9149
39 -84.7608 -159.487 -20.1882
40 -86.4245 -162.542 -22.9312
41 -91.546 -162.179 -21.8122
42 -92.0517 -166.8 -22.8693
43 -96.2849 -165.066 -25.6155
2 -39.5446 -158.982 -50.4914
3 -41.7351 -156.677 -48.5209
4 -45.9952 -157.759 -49.395
5 -47.4392 -153.803 -45.9324
6 -45.0324 -147.326 -43.1823
7 -49.3853 -144.677 -45.0622
8 -51.8101 -144.688 -47.7806
9 -56.8257 -146.69 -46.0728
10 -57.9559 -145.505 -50.5989
11 -57 -149.665 -53.8098
12 -59.7931 -152.752 -50.6459
13 -54.9404 -153.678 -47.9091
14 -55.6422 -152.466 -43.618
15 -52.6192 -151.597 -40.9016
16 -50.9442 -156.533 -40.5896
17 -48.4202 -155.717 -35.4231
18 -47.4695 -160.467 -37.18
19 -51.6176 -162.189 -34.619
20 -55.6392 -145.614 -36.0786
21 -59.9621 -142.593 -36.3813
22 -60.7695 -139.749 -40.1618
23 -60.5759 -145.599 -41.7165
24 -65.2992 -146.245 -42.8897
25 -64.8885 -151.365 -40.0321
26 -60.3906 -152.679 -37.3343
27 -62.5188 -157.201 -34.8644
28 -56.5624 -155.639 -34.666
29 -55.831 -153.852 -29.8305
30 -55.0319 -158.497 -34.4865
31 -55.5105 -162.31 -35.6186
32 -56.4059 -160.997 -38.6558
33 -54.5616 -164.565 -42.7454
34 -57.8623 -161.169 -45.1898
35 -61.6707 -163.701 -47.4502
36 -60.6856 -164.384 -51.9044
37 -63.8304 -166.705 -54.4843
38 -59.5127 -167.734 -54.9527
39 -62.0987 168.084 -58.8373
40 -60.8617 164.292 -55.5551
41 -61.4294 162.797 -59.7005
42 -56.685 164.516 -60.662
43 -54.7986 166.248 -64.8571
2 -49.2155 127.462 -43.2663
3 -48.4086 130.5 -44.8143
4 -46.3204 133.72 -44.5152
5 -50.8331 135.099 -40.5108
6 -50.1121 141.837 -43.0943
7 -49.5791 141.664 -38.2671
8 -50.2388 140.393 -34.8752
9 -51.4594 144.623 -32.8395
10 -56.7862 141.985 -31.711
11 -55.691 145.901 -30.2352
12 -59.377 148.885 -29.1105
13 -54.4327 151.153 -30.4356
14 -52.4176 154.612 -27.6696
15 -52.4645 157.863 -28.8911
16 -47.7496 157.928 -27.399
17 -49.5638 162.324 -25.5878
18 -45.1293 163.391 -29.5281
19 -43.7468 162.933 -24.9821
20 -34.3334 -166.321 -35.8208
21 -36.4226 168.613 -36.4203
22 -33.3094 165.958 -39.0325
23 -33.4687 162.487 -34.6416
24 -36.875 159.022 -34.703
25 -37.5229 159.662 -29.4673
26 -37.0428 165.21 -31.7859
27 -36.0594 166.614 -26.9729
28 -37.9553 -168.472 -30.7966
29 -42.7928 -166.393 -29.881
30 -43.3364 165.6 -29.2311
31 -41.0842 165.038 -32.8402
32 -40.9143 168.273 -34.9435
33 -44.4353 -167.639 -37.0873
34 -47.7226 166.233 -36.743
35 -45.787 166.936 -41.8501
36 -44.0354 163.529 -41.1258
37 -42.9613 161.191 -44.9133
38 -44.7346 158.531 -41.1531
39 -42.423 153.552 -43.0144
40 -45.3478 154.524 -46.4605
41 -40.6151 152.839 -48.3171
42 -41.6862 152.413 -52.9733
43 -46.6338 149.985 -52.2321
2 -56.9518 125.602 -9.03975
3 -57.323 128.092 -11.8855
4 -59.2002 129.949 -15.6392
5 -56.778 133.857 -16.6728
6 -54.5932 132.774 -24.6676
7 -51.8767 136.681 -24.4112
8 -54.6137 140.621 -23.5514
9 -55.0495 140.875 -18.3281
10 -59.3742 143.686 -17.9384
11 -58.8245 143.446 -13.2047
12 -63.1115 146.659 -11.9007
13 -59.5983 147.854 -9.16263
14 -55.6813 150.039 -13.0574
15 -54.0987 150.876 -10.0718
16 -51.6853 153.924 -11.8114
17 -56.8634 159.398 -13.2527
18 -52.8802 160.034 -13.5281
19 -52.4787 161.618 -8.92936
20 -35.7916 157.914 -9.78156
21 -34.3026 155.236 -13.3479
22 -29.7265 155.72 -14.4858
23 -32.2906 152.753 -17.1199
24 -34.1014 154.838 -21.2532
25 -38.8537 153.442 -20.4412
26 -41.1339 157.272 -16.9021
27 -46.109 156.683 -17.2296
28 -44.7985 159.458 -12.4016
29 -43.4899 163.301 -14.088
30 -48.5208 159.858 -11.4895
31 -49.3767 158.449 -7.75957
32 -46.0995 156.68 -6.69819
33 -46.1715 152.711 -3.68348
34 -40.8714 152.904 -2.45411
35 -42.2451 148.491 -6.13389
36 -42.2242 145.365 -2.68752
37 -43.6907 141.752 -4.8958
38 -46.8719 141.487 -0.882386
39 -46.9532 136.521 -2.43941
40 -50.292 134.868 1.71098
41 -46.6606 132.81 4.49653
42 -49.4599 128.718 4.4459
43 -48.0223 124.93 3.21791
2 -68.2283 -155.833 13.0549
3 -70.5209 -155.329 9.79802
4 -73.2064 -158.496 7.65347
5 -75.0151 -152.803 7.14312
6 -81.4177 -153.971 5.04985
7 -77.4949 -154.227 1.36858
8 -73.9703 -154.163 3.78281
9 -72.3048 -158.351 1.64844
10 -75.224 -157.373 -2.18639
11 -72.528 -160.999 -2.71993
12 -71.9231 -158.748 -6.80794
13 -72.5339 -164.917 -7.29632
14 -71.3566 -164.912 -11.8299
15 -72.4042 -168.182 -13.4391
16 -69.5609 -166.853 -17.3975
17 -63.9023 -168.577 -13.4646
18 -67.1319 -169.07 -9.92316
19 -65.7423 -164.323 -8.65269
20 -58.0369 -168.699 5.98936
21 -60.0743 166.206 4.96264
22 -56.5087 165.503 7.72674
23 -57.1175 160.791 6.38023
24 -56.7949 159.992 1.88044
25 -62.5852 159.44 1.76157
26 -59.8352 163.834 1.36948
27 -58.6429 164.199 -4.37497
28 -57.7725 168.759 -0.385152
29 -56.9968 -168.149 -4.27987
30 -63.4372 -167.757 -5.78805
31 -65.3333 167.597 -4.16962
32 -68.1072 -169.264 -2.30893
33 -66.2555 -165.462 0.883602
34 -70.0823 -167.309 4.54504
35 -70.5235 166.323 5.20921
36 -68.1885 163.919 8.44675
37 -72.0144 160.831 8.50048
38 -70.03 161.109 12.9974
39 -65.481 159.141 12.2563
40 -67.3524 156.845 17.3007
41 -71.1364 156.165 20.36
42 -70.5376 151.931 17.5887
43 -66.4361 150.823 19.2009
44 -53.166 157.809 -50.6687
45 -53.44 163.53 -47.0377
46 -59.4584 162.701 -46.8999
47 -56.3199 157.473 -46.2903
48 -61.7043 155.561 -44.5948
49 -60.7881 153.705 -41.0412
50 -63.674 152.807 -38.6996
51 -65.6522 156.87 -39.3986
52 -69.9044 155.419 -38.7651
53 -69.8319 157.939 -43.669
54 -74.4969 161.53 -40.7263
55 -73.0873 163.614 -46.5423
56 -71.1524 159.77 -50.0646
57 -69.758 165.754 -51.0147
58 -72.7794 168.65 -45.5385
59 -73.0869 -168.13 -50.9918
60 -71.3136 -164.681 -48.4145
44 155.693 22.6799 22.7715
45 151.794 26.6914 19.317
46 156.054 25.2545 15.3108
47 158.221 30.6328 20.4456
48 153.755 33.0543 17.6656
49 157.522 33.9329 14.7027
50 158.311 32.7166 10.1978
51 163.606 31.4 11.8228
52 164.882 26.95 13.3761
53 164.873 28.8082 19.4646
54 162.972 33.0314 15.794
55 168.564 31.2389 14.8308
56 -167.068 34.5454 11.0047
57 167.479 37.3129 15.5163
58 -168.96 43.6136 13.3126
59 167.529 43.1327 18.267
60 164.89 46.5967 17.521
44 -162.118 -36.1052 -13.3107
45 -159.251 -37.5507 -20.2885
46 -159.678 -42.3429 -17.8101
47 -166.542 -43.2713 -13.8138
48 -169.161 -43.9971 -19.5175
49 168.425 -48.6466 -20.2794
50 -167.556 -50.7679 -23.7055
51 -164.044 -54.2248 -21.2468
52 -161.235 -52.1711 -24.567
53 -157.76 -49.3769 -21.4222
54 -155.32 -46.3453 -27.1172
55 -160.072 -46.1932 -25.8604
56 -165.15 -42.9262 -27.4847
57 -160.715 -37.5732 -28.2646
58 -160.947 -38.3242 -33.686
59 -154.883 -39.766 -32.9475
60 -154.797 -42.0491 -30.4098
44 12.9517 101.464 30.0287
45 12.6592 93.8049 27.9648
46 9.1938 95.8499 23.2043
47 11.5773 103.207 26.1672
48 11.5638 104.353 20.0079
49 11.5447 109.29 21.1243
50 7.85198 109.287 21.4347
51 8.50249 113.283 24.0711
52 13.1531 113.294 24.9417
53 11.8332 117.295 30.2343
54 8.64528 114.7 31.6945
55 6.82929 115.993 26.1641
56 1.37697 114.71 24.3217
57 0.172557 114.324 30.4472
58 2.24666 119.611 29.9697
59 4.54574 117.11 33.9937
60 8.33621 119.163 33.7566
44 109.216 159.285 -1.73668
45 102.364 160.452 2.1845
46 106.109 155.582 4.44051
47 110.791 159.41 7.63062
48 111.814 154.465 7.04624
49 114.885 156.662 9.89265
50 115.378 152.021 11.7194
51 115.54 152.111 6.27468
52 117.879 147.891 6.58213
53 122.205 148.292 2.3929
54 122.494 145.242 -2.85446
55 127.1 144.544 -2.46319
56 126.615 143.218 3.00474
57 124.994 138.369 -1.42561
58 124.159 136.473 4.11134
59 125.25 142.457 2.84276
60 120.638 142.872 1.75342
44 -45.5092 165.434 -64.1128
45 -38.8147 161.708 -63.5857
46 -42.457 157.589 -67.7094
47 -45.744 154.064 -61.6325
48 -42.4341 149.59 -62.8441
49 -44.4561 148.566 -67.1939
50 -48.6402 145.993 -67.3228
51 -51.2139 148.167 -71.588
52 -54.5504 145.034 -71.3407
53 -51.4547 147.889 -76.0956
54 -47.5993 141.993 -74.018
55 -41.6313 144.239 -76.442
56 -44.3281 147.252 -80.4715
57 -39.1937 144.154 -81.817
58 -38.5908 145.76 -75.5065
59 -41.3557 141.17 -72.8256
60 -41.3698 142.724 -68.8502
44 -50.7565 -83.4424 -120.627
45 -47.5349 -83.4879 -127.358
46 -51.9166 -87.6596 -127.23
47 -45.9727 -93.0789 -126.848
48 -44.072 -87.2051 -129.249
49 -40.5399 -89.4205 -129.346
50 -38.2547 -90.1551 -133.175
51 -37.313 -95.8295 -132.796
52 -38.5092 -97.7673 -129.285
53 -33.6779 -101.986 -131.172
54 -39.0691 -104.619 -128.477
55 -35.8576 -109.171 -127.691
56 -36.1683 -115.362 -129.121
57 -38.9987 -111.197 -134.842
58 -34.643 -111.396 -138.012
59 -36.3832 -105.688 -136.986
60 -32.2638 -104.932 -135.83
44 45.7521 -120.857 -128.56
45 52.7543 -118.19 -129.525
46 53.9015 -124.29 -131.665
47 55.4406 -128.294 -125.877
48 59.2911 -129.82 -131.306
49 59.6528 -125.292 -133.039
50 64.5747 -124.98 -131.686
51 61.9865 -120.243 -129.853
52 62.5754 -116.919 -131.48
53 63.9846 -120.159 -136.461
54 63.8768 -115.634 -140.583
55 58.0602 -116.302 -139.346
56 53.0917 -118.882 -139.973
57 57.648 -120.248 -143.504
58 59.1273 -124.615 -140.324
59 63.825 -122.893 -142.487
60 64.8136 -118.698 -145.034
44 -3.89166 -96.0672 -133.199
45 -11.9321 -94.9763 -137.817
46 -12.7673 -98.8982 -132.906
47 -11.4875 -93.6239 -127.565
48 -13.5436 -89.7029 -132.039
49 -9.72026 -88.288 -130.31
50 -11.1249 -88.5345 -125.95
51 -7.44599 -84.7015 -125.077
52 -4.85607 -87.5263 -122.307
53 -5.93054 -88.8313 -128.053
54 -7.92701 -81.3755 -128.517
55 -6.60874 -82.9865 -132.167
56 -3.59178 -78.6458 -132.443
57 -7.0259 -79.0078 -138.064
58 -13.4379 -80.1122 -135.187
59 -12.1732 -76.2545 -132.226
60 -9.74716 -73.6052 -134.981
44 -84.6509 153.78 4.8358
45 -82.8613 156.032 -1.815
46 -81.8535 148.553 -3.55449
47 -82.3066 150.273 2.11216
48 -78.9474 149.304 0.852874
49 -74.87 151.532 2.51998
50 -71.7602 148.201 1.05042
51 -70.8166 149.324 6.09588
52 -75.0232 148.403 7.67083
53 -74.3173 144.658 6.28437
54 -79.3756 144.83 8.75766
55 -76.5673 142.891 11.0768
56 -79.4444 144.371 16.1607
57 -73.7306 142.126 18.8987
58 -74.692 136.399 20.6546
59 -74.1284 137.962 14.8336
60 -69.9375 136.504 13.8217
44 -27.0266 118.894 -12.8202
45 -21.2857 120.616 -9.39232
46 -20.5085 127.217 -11.8732
47 -26.9768 126.608 -8.03547
48 -25.3984 131.171 -11.1917
49 -26.7339 129.748 -14.6915
50 -30.8004 127.927 -12.129
51 -32.4992 131.862 -13.196
52 -33.6695 131.932 -9.12373
53 -39.2283 134.318 -10.4543
54 -40.4715 130.344 -9.91726
55 -37.1918 127.338 -11.7269
56 -42.2736 123.813 -12.8537
57 -43.3076 127.666 -7.87257
58 -38.2471 124.445 -5.98209
59 -42.3133 127.032 -1.02299
60 -39.8383 128.113 2.56263
44 -159.063 -74.4373 -82.2763
45 -156.639 -78.4818 -86.5534
46 -160.016 -75.0635 -89.8919
47 -153.973 -74.2623 -92.614
48 -156.056 -69.0448 -95.6206
49 -153.672 -68.7545 -99.1507
50 -153.106 -64.9598 -101.106
51 -149.566 -69.1609 -102.105
52 -145.634 -68.2813 -102.146
53 -146.413 -69.4315 -111.112
54 -152.088 -66.5693 -109.62
55 -153.214 -69.2453 -113.915
56 -150.557 -64.8298 -116.877
57 -156.668 -64.5994 -115.697
58 -155.838 -60.2291 -120.486
59 -156.295 -56.0582 -116.35
60 -155.534 -53.0815 -119.184
44 -100.292 97.6703 -165.435
45 -99.1023 105.117 -164.464
46 -105.583 105.061 -161.292
47 -101.553 110.606 -156.902
48 -95.3293 107.739 -156.388
49 -94.7401 107.919 -151.119
50 -90.8357 109.902 -153.236
51 -93.6975 113.431 -150.908
52 -97.0105 116.45 -153.203
53 -93.36 113.715 -159.385
54 -86.7271 116.36 -157.81
55 -87.5678 114.644 -154.26
56 -88.7524 119.449 -151.212
57 -88.2325 118.371 -157.002
58 -83.1926 121.328 -152.972
59 -87.2773 125.27 -156.849
60 -88.7751 125.684 -152.545
44 -148.529 57.2824 -164.113
45 -153.993 54.4329 -163.908
46 -158.11 58.021 169.119
47 -157.847 62.4312 -164.19
48 -157.216 56.6603 -162.323
49 -161.893 56.2705 -161.619
50 -165.104 57.5736 -158.336
51 -168.008 58.5639 -163.012
52 166.868 59.8197 -161.527
53 167.823 64.8824 -165.52
54 162.985 64.5836 -163.786
55 165.282 69.0577 -167.271
56 162.83 70.7051 166.428
57 163.483 65.7544 161.662
58 160.434 62.3668 164.998
59 166.817 62.5353 165.571
60 167.153 66.4425 167.568
44 -13.1026 116.847 -66.158
45 -18.7848 116.398 -70.8987
46 -14.5362 111.142 -72.4484
47 -21.3599 109.435 -71.217
48 -21.3937 114.479 -74.95
49 -24.8179 114.745 -71.7312
50 -28.5071 117.319 -72.6822
51 -27.595 120.386 -67.8331
52 -32.0073 122.675 -67.8179
53 -28.3152 127.111 -67.2109
54 -25.4244 126.451 -74.1545
55 -22.9863 126.548 -69.4396
56 -26.051 129.089 -66.2127
57 -20.5156 126.894 -63.6128
58 -20.9435 124.585 -68.4132
59 -19.3515 130.616 -69.792
60 -20.6908 131.03 -74.0268
1 -31.9938 167.711 -101.802
2 -23.4983 151.858 -157.95
3 -24.1166 154.463 -155.14
4 -27.4536 157.538 -154.234
5 -24.4359 159.09 -150.334
6 -32.123 159.893 -147.766
7 -31.4332 164.222 -145.635
8 -28.3722 163.18 -142.773
9 -30.6932 165.947 -138.907
10 -32.9844 168.572 -142.336
11 -32.8811 -167.513 -138.1
12 -28.6027 -165.545 -140.436
13 -31.9362 -161.632 -138.638
14 -30.4824 -161.603 -133.543
15 -33.8975 -159.675 -133.112
16 -32.8174 -160.512 -128.758
17 -27.4737 -158.289 -130.311
18 -27.016 -160.774 -126.237
19 -28.1961 -158.733 -122.365
20 -45.234 -157.32 -121.648
21 -42.5825 -158.312 -127.362
22 -41.9792 -158.237 -132.108
23 -38.0402 -160.876 -130.782
24 -40.2955 -164.667 -130.114
25 -35.3174 -167.673 -130.911
26 -34.9909 -164.876 -127.148
27 -32.4155 -167.972 -123.844
28 -33.2616 -162.392 -121.668
29 -37.2266 -163.743 -120.446
30 -32.7651 -160.219 -123.858
31 -36.5816 -159.846 -126.218
32 -35.8766 -156.884 -128.805
33 -35.6671 -152.935 -126.086
34 -37.593 -149.71 -130.185
35 -32.8679 -148.933 -132.642
36 -35.3921 -149.614 -136.436
37 -31.4913 -146.694 -136.535
38 -33.1041 -146.795 -140.93
39 -35.421 -143.029 -142.269
40 -40.3897 -146.418 -143.419
41 -39.423 -149.619 -146.524
42 -35.4767 -153.336 -144.264
43 -32.2815 -156.691 -147.188
2 -18.0793 167.356 -124.327
3 -14.843 165.411 -124.75
4 -10.8172 169.037 -122.927
5 -7.77731 -167.888 -127.325
6 -5.49903 -163.024 -130.523
7 -8.28718 -166.51 -133.173
8 -7.23068 167.78 -132.219
9 -2.40399 169.042 -131.053
10 -0.449163 164.623 -131.935
11 2.01062 168.818 -128.728
12 6.85537 168.381 -128.996
13 4.99687 -167.811 -124.512
14 1.54043 167.682 -124.836
15 -0.40345 -167.724 -124.192
16 -4.72549 169.149 -121.688
17 -6.44665 -163.402 -120.282
18 -7.7234 -164.494 -115.037
19 -12.5528 -163.95 -114.395
20 -19.0799 -148.49 -111.049
21 -23.1198 -147.742 -113.403
22 -21.9001 -143.999 -114.751
23 -27.1776 -144.444 -116.646
24 -29.0176 -143.612 -112.793
25 -32.5498 -146.82 -113.723
26 -28.5496 -147.979 -115.251
27 -29.2514 -152.789 -117.458
28 -23.7022 -154.022 -113.336
29 -21.2933 -158.137 -114.025
30 -15.1714 -159.908 -115.853
31 -12.3021 -158.855 -118.665
32 -14.7113 -159.735 -121.291
33 -17.6838 -154.937 -121.56
34 -13.4769 -154.508 -125.681
35 -16.7323 -150.301 -128.23
36 -15.1744 -150.508 -132.488
37 -17.005 -153.366 -134.975
38 -11.7074 -152.393 -136.996
39 -12.4158 -154.392 -140.67
40 -7.82976 -155.973 -142.463
41 -5.23768 -154.161 -146.27
42 -6.7461 -149.759 -143.073
43 -1.53676 -150.778 -143.319
2 14.2208 143.419 -87.1748
3 10.583 143.088 -88.1447
4 8.73348 141.764 -91.0393
5 4.00279 140.897 -90.3385
6 2.65468 134.404 -91.4077
7 -0.263342 135.918 -87.769
8 -3.55005 136.765 -90.4185
9 -4.41148 136.086 -95.3949
10 -9.39701 136.111 -95.9226
11 -6.24456 140.523 -98.1242
12 -11.0521 141.81 -100.06
13 -8.05186 145.508 -98.5135
14 -8.66449 148.028 -101.946
15 -11.7092 147.899 -100.238
16 -11.9657 149.297 -104.934
17 -15.55 153.766 -105.1
18 -14.2427 152.195 -110.13
19 -13.1931 156.467 -112.012
20 -4.62127 166.206 -100.849
21 -0.986196 -169.191 -102.36
22 2.38892 -166.542 -100.539
23 0.948848 -165.434 -104.47
24 -2.05274 -162.178 -102.977
25 -4.42012 -162.333 -107.509
26 -3.57576 -167.672 -106.119
27 -5.52201 168.053 -111.282
28 -6.96056 165.493 -106.057
29 -12.3126 166.025 -107.753
30 -10.4434 160.556 -111.001